
3936 atoms
#  atoms
3 atom types

0.000000 100.700000 xlo xhi
0.000000 102.100000 ylo yhi
0.000000 6.7000000 zlo zhi

Atoms

1       0      1      0         0.000000        0.000000        0.000000
2       0      1      0        -1.228024        0.709000        0.000000
3       0      1      0        -1.228024        2.127000        0.000000
4       0      1      0         0.000000        2.836000        0.000000
5       0      1      0         2.456048        0.000000        0.000000
6       0      1      0         1.228024        0.709000        0.000000
7       0      1      0         1.228024        2.127000        0.000000
8       0      1      0         2.456048        2.836000        0.000000
9       0      1      0         4.912096        0.000000        0.000000
10      0      1      0         3.684072        0.709000        0.000000
11      0      1      0         3.684072        2.127000        0.000000
12      0      1      0         4.912096        2.836000        0.000000
13      0      1      0         7.368144        0.000000        0.000000
14      0      1      0         6.140120        0.709000        0.000000
15      0      1      0         6.140120        2.127000        0.000000
16      0      1      0         7.368144        2.836000        0.000000
17      0      1      0         9.824192        0.000000        0.000000
18      0      1      0         8.596169        0.709000        0.000000
19      0      1      0         8.596169        2.127000        0.000000
20      0      1      0         9.824192        2.836000        0.000000
21      0      1      0        12.280240        0.000000        0.000000
22      0      1      0        11.052217        0.709000        0.000000
23      0      1      0        11.052217        2.127000        0.000000
24      0      1      0        12.280240        2.836000        0.000000
25      0      1      0        14.736288        0.000000        0.000000
26      0      1      0        13.508265        0.709000        0.000000
27      0      1      0        13.508265        2.127000        0.000000
28      0      1      0        14.736288        2.836000        0.000000
29      0      1      0        17.192337        0.000000        0.000000
30      0      1      0        15.964313        0.709000        0.000000
31      0      1      0        15.964313        2.127000        0.000000
32      0      1      0        17.192337        2.836000        0.000000
33      0      1      0        19.648384        0.000000        0.000000
34      0      1      0        18.420361        0.709000        0.000000
35      0      1      0        18.420361        2.127000        0.000000
36      0      1      0        19.648384        2.836000        0.000000
37      0      1      0        22.104433        0.000000        0.000000
38      0      1      0        20.876408        0.709000        0.000000
39      0      1      0        20.876408        2.127000        0.000000
40      0      1      0        22.104433        2.836000        0.000000
41      0      1      0        24.560480        0.000000        0.000000
42      0      1      0        23.332457        0.709000        0.000000
43      0      1      0        23.332457        2.127000        0.000000
44      0      1      0        24.560480        2.836000        0.000000
45      0      1      0        27.016529        0.000000        0.000000
46      0      1      0        25.788504        0.709000        0.000000
47      0      1      0        25.788504        2.127000        0.000000
48      0      1      0        27.016529        2.836000        0.000000
49      0      1      0        29.472576        0.000000        0.000000
50      0      1      0        28.244553        0.709000        0.000000
51      0      1      0        28.244553        2.127000        0.000000
52      0      1      0        29.472576        2.836000        0.000000
53      0      1      0        31.928625        0.000000        0.000000
54      0      1      0        30.700600        0.709000        0.000000
55      0      1      0        30.700600        2.127000        0.000000
56      0      1      0        31.928625        2.836000        0.000000
57      0      1      0        34.384674        0.000000        0.000000
58      0      1      0        33.156647        0.709000        0.000000
59      0      1      0        33.156647        2.127000        0.000000
60      0      1      0        34.384674        2.836000        0.000000
61      0      1      0        36.840721        0.000000        0.000000
62      0      1      0        35.612698        0.709000        0.000000
63      0      1      0        35.612698        2.127000        0.000000
64      0      1      0        36.840721        2.836000        0.000000
65      0      1      0        39.296768        0.000000        0.000000
66      0      1      0        38.068745        0.709000        0.000000
67      0      1      0        38.068745        2.127000        0.000000
68      0      1      0        39.296768        2.836000        0.000000
69      0      1      0        41.752815        0.000000        0.000000
70      0      1      0        40.524792        0.709000        0.000000
71      0      1      0        40.524792        2.127000        0.000000
72      0      1      0        41.752815        2.836000        0.000000
73      0      1      0        44.208866        0.000000        0.000000
74      0      1      0        42.980843        0.709000        0.000000
75      0      1      0        42.980843        2.127000        0.000000
76      0      1      0        44.208866        2.836000        0.000000
77      0      1      0        46.664913        0.000000        0.000000
78      0      1      0        45.436890        0.709000        0.000000
79      0      1      0        45.436890        2.127000        0.000000
80      0      1      0        46.664913        2.836000        0.000000
81      0      1      0        49.120960        0.000000        0.000000
82      0      1      0        47.892937        0.709000        0.000000
83      0      1      0        47.892937        2.127000        0.000000
84      0      1      0        49.120960        2.836000        0.000000
85      0      1      0        51.577007        0.000000        0.000000
86      0      1      0        50.348984        0.709000        0.000000
87      0      1      0        50.348984        2.127000        0.000000
88      0      1      0        51.577007        2.836000        0.000000
89      0      1      0        54.033058        0.000000        0.000000
90      0      1      0        52.805035        0.709000        0.000000
91      0      1      0        52.805035        2.127000        0.000000
92      0      1      0        54.033058        2.836000        0.000000
93      0      1      0        56.489105        0.000000        0.000000
94      0      1      0        55.261082        0.709000        0.000000
95      0      1      0        55.261082        2.127000        0.000000
96      0      1      0        56.489105        2.836000        0.000000
97      0      1      0        58.945152        0.000000        0.000000
98      0      1      0        57.717129        0.709000        0.000000
99      0      1      0        57.717129        2.127000        0.000000
100     0      1      0        58.945152        2.836000        0.000000
101     0      1      0        61.401199        0.000000        0.000000
102     0      1      0        60.173176        0.709000        0.000000
103     0      1      0        60.173176        2.127000        0.000000
104     0      1      0        61.401199        2.836000        0.000000
105     0      1      0        63.857250        0.000000        0.000000
106     0      1      0        62.629227        0.709000        0.000000
107     0      1      0        62.629227        2.127000        0.000000
108     0      1      0        63.857250        2.836000        0.000000
109     0      1      0        66.313293        0.000000        0.000000
110     0      1      0        65.085274        0.709000        0.000000
111     0      1      0        65.085274        2.127000        0.000000
112     0      1      0        66.313293        2.836000        0.000000
113     0      1      0        68.769348        0.000000        0.000000
114     0      1      0        67.541321        0.709000        0.000000
115     0      1      0        67.541321        2.127000        0.000000
116     0      1      0        68.769348        2.836000        0.000000
117     0      1      0        71.225395        0.000000        0.000000
118     0      1      0        69.997368        0.709000        0.000000
119     0      1      0        69.997368        2.127000        0.000000
120     0      1      0        71.225395        2.836000        0.000000
121     0      1      0        73.681442        0.000000        0.000000
122     0      1      0        72.453415        0.709000        0.000000
123     0      1      0        72.453415        2.127000        0.000000
124     0      1      0        73.681442        2.836000        0.000000
125     0      1      0        76.137489        0.000000        0.000000
126     0      1      0        74.909462        0.709000        0.000000
127     0      1      0        74.909462        2.127000        0.000000
128     0      1      0        76.137489        2.836000        0.000000
129     0      1      0        78.593536        0.000000        0.000000
130     0      1      0        77.365517        0.709000        0.000000
131     0      1      0        77.365517        2.127000        0.000000
132     0      1      0        78.593536        2.836000        0.000000
133     0      1      0        81.049583        0.000000        0.000000
134     0      1      0        79.821564        0.709000        0.000000
135     0      1      0        79.821564        2.127000        0.000000
136     0      1      0        81.049583        2.836000        0.000000
137     0      1      0        83.505630        0.000000        0.000000
138     0      1      0        82.277611        0.709000        0.000000
139     0      1      0        82.277611        2.127000        0.000000
140     0      1      0        83.505630        2.836000        0.000000
141     0      1      0        85.961685        0.000000        0.000000
142     0      1      0        84.733658        0.709000        0.000000
143     0      1      0        84.733658        2.127000        0.000000
144     0      1      0        85.961685        2.836000        0.000000
145     0      1      0        88.417732        0.000000        0.000000
146     0      1      0        87.189705        0.709000        0.000000
147     0      1      0        87.189705        2.127000        0.000000
148     0      1      0        88.417732        2.836000        0.000000
149     0      1      0        90.873779        0.000000        0.000000
150     0      1      0        89.645752        0.709000        0.000000
151     0      1      0        89.645752        2.127000        0.000000
152     0      1      0        90.873779        2.836000        0.000000
153     0      1      0        93.329826        0.000000        0.000000
154     0      1      0        92.101799        0.709000        0.000000
155     0      1      0        92.101799        2.127000        0.000000
156     0      1      0        93.329826        2.836000        0.000000
157     0      1      0        95.785873        0.000000        0.000000
158     0      1      0        94.557846        0.709000        0.000000
159     0      1      0        94.557846        2.127000        0.000000
160     0      1      0        95.785873        2.836000        0.000000
161     0      1      0        98.241920        0.000000        0.000000
162     0      1      0        97.013901        0.709000        0.000000
163     0      1      0        97.013901        2.127000        0.000000
164     0      1      0        98.241920        2.836000        0.000000
165     0      1      0         0.000000        4.254000        0.000000
166     0      1      0        -1.228024        4.963000        0.000000
167     0      1      0        -1.228024        6.381000        0.000000
168     0      1      0         0.000000        7.090000        0.000000
169     0      1      0         2.456048        4.254000        0.000000
170     0      1      0         1.228024        4.963000        0.000000
171     0      1      0         1.228024        6.381000        0.000000
172     0      1      0         2.456048        7.090000        0.000000
173     0      1      0         4.912096        4.254000        0.000000
174     0      1      0         3.684072        4.963000        0.000000
175     0      1      0         3.684072        6.381000        0.000000
176     0      1      0         4.912096        7.090000        0.000000
177     0      1      0         7.368144        4.254000        0.000000
178     0      1      0         6.140120        4.963000        0.000000
179     0      1      0         6.140120        6.381000        0.000000
180     0      1      0         7.368144        7.090000        0.000000
181     0      1      0         9.824192        4.254000        0.000000
182     0      1      0         8.596169        4.963000        0.000000
183     0      1      0         8.596169        6.381000        0.000000
184     0      1      0         9.824192        7.090000        0.000000
185     0      1      0        12.280240        4.254000        0.000000
186     0      1      0        11.052217        4.963000        0.000000
187     0      1      0        11.052217        6.381000        0.000000
188     0      1      0        12.280240        7.090000        0.000000
189     0      1      0        14.736288        4.254000        0.000000
190     0      1      0        13.508265        4.963000        0.000000
191     0      1      0        13.508265        6.381000        0.000000
192     0      1      0        14.736288        7.090000        0.000000
193     0      1      0        17.192337        4.254000        0.000000
194     0      1      0        15.964313        4.963000        0.000000
195     0      1      0        15.964313        6.381000        0.000000
196     0      1      0        17.192337        7.090000        0.000000
197     0      1      0        19.648384        4.254000        0.000000
198     0      1      0        18.420361        4.963000        0.000000
199     0      1      0        18.420361        6.381000        0.000000
200     0      1      0        19.648384        7.090000        0.000000
201     0      1      0        22.104433        4.254000        0.000000
202     0      1      0        20.876408        4.963000        0.000000
203     0      1      0        20.876408        6.381000        0.000000
204     0      1      0        22.104433        7.090000        0.000000
205     0      1      0        24.560480        4.254000        0.000000
206     0      1      0        23.332457        4.963000        0.000000
207     0      1      0        23.332457        6.381000        0.000000
208     0      1      0        24.560480        7.090000        0.000000
209     0      1      0        27.016529        4.254000        0.000000
210     0      1      0        25.788504        4.963000        0.000000
211     0      1      0        25.788504        6.381000        0.000000
212     0      1      0        27.016529        7.090000        0.000000
213     0      1      0        29.472576        4.254000        0.000000
214     0      1      0        28.244553        4.963000        0.000000
215     0      1      0        28.244553        6.381000        0.000000
216     0      1      0        29.472576        7.090000        0.000000
217     0      1      0        31.928625        4.254000        0.000000
218     0      1      0        30.700600        4.963000        0.000000
219     0      1      0        30.700600        6.381000        0.000000
220     0      1      0        31.928625        7.090000        0.000000
221     0      1      0        34.384674        4.254000        0.000000
222     0      1      0        33.156647        4.963000        0.000000
223     0      1      0        33.156647        6.381000        0.000000
224     0      1      0        34.384674        7.090000        0.000000
225     0      1      0        36.840721        4.254000        0.000000
226     0      1      0        35.612698        4.963000        0.000000
227     0      1      0        35.612698        6.381000        0.000000
228     0      1      0        36.840721        7.090000        0.000000
229     0      1      0        39.296768        4.254000        0.000000
230     0      1      0        38.068745        4.963000        0.000000
231     0      1      0        38.068745        6.381000        0.000000
232     0      1      0        39.296768        7.090000        0.000000
233     0      1      0        41.752815        4.254000        0.000000
234     0      1      0        40.524792        4.963000        0.000000
235     0      1      0        40.524792        6.381000        0.000000
236     0      1      0        41.752815        7.090000        0.000000
237     0      1      0        44.208866        4.254000        0.000000
238     0      1      0        42.980843        4.963000        0.000000
239     0      1      0        42.980843        6.381000        0.000000
240     0      1      0        44.208866        7.090000        0.000000
241     0      1      0        46.664913        4.254000        0.000000
242     0      1      0        45.436890        4.963000        0.000000
243     0      1      0        45.436890        6.381000        0.000000
244     0      1      0        46.664913        7.090000        0.000000
245     0      1      0        49.120960        4.254000        0.000000
246     0      1      0        47.892937        4.963000        0.000000
247     0      1      0        47.892937        6.381000        0.000000
248     0      1      0        49.120960        7.090000        0.000000
249     0      1      0        51.577007        4.254000        0.000000
250     0      1      0        50.348984        4.963000        0.000000
251     0      1      0        50.348984        6.381000        0.000000
252     0      1      0        51.577007        7.090000        0.000000
253     0      1      0        54.033058        4.254000        0.000000
254     0      1      0        52.805035        4.963000        0.000000
255     0      1      0        52.805035        6.381000        0.000000
256     0      1      0        54.033058        7.090000        0.000000
257     0      1      0        56.489105        4.254000        0.000000
258     0      1      0        55.261082        4.963000        0.000000
259     0      1      0        55.261082        6.381000        0.000000
260     0      1      0        56.489105        7.090000        0.000000
261     0      1      0        58.945152        4.254000        0.000000
262     0      1      0        57.717129        4.963000        0.000000
263     0      1      0        57.717129        6.381000        0.000000
264     0      1      0        58.945152        7.090000        0.000000
265     0      1      0        61.401199        4.254000        0.000000
266     0      1      0        60.173176        4.963000        0.000000
267     0      1      0        60.173176        6.381000        0.000000
268     0      1      0        61.401199        7.090000        0.000000
269     0      1      0        63.857250        4.254000        0.000000
270     0      1      0        62.629227        4.963000        0.000000
271     0      1      0        62.629227        6.381000        0.000000
272     0      1      0        63.857250        7.090000        0.000000
273     0      1      0        66.313293        4.254000        0.000000
274     0      1      0        65.085274        4.963000        0.000000
275     0      1      0        65.085274        6.381000        0.000000
276     0      1      0        66.313293        7.090000        0.000000
277     0      1      0        68.769348        4.254000        0.000000
278     0      1      0        67.541321        4.963000        0.000000
279     0      1      0        67.541321        6.381000        0.000000
280     0      1      0        68.769348        7.090000        0.000000
281     0      1      0        71.225395        4.254000        0.000000
282     0      1      0        69.997368        4.963000        0.000000
283     0      1      0        69.997368        6.381000        0.000000
284     0      1      0        71.225395        7.090000        0.000000
285     0      1      0        73.681442        4.254000        0.000000
286     0      1      0        72.453415        4.963000        0.000000
287     0      1      0        72.453415        6.381000        0.000000
288     0      1      0        73.681442        7.090000        0.000000
289     0      1      0        76.137489        4.254000        0.000000
290     0      1      0        74.909462        4.963000        0.000000
291     0      1      0        74.909462        6.381000        0.000000
292     0      1      0        76.137489        7.090000        0.000000
293     0      1      0        78.593536        4.254000        0.000000
294     0      1      0        77.365517        4.963000        0.000000
295     0      1      0        77.365517        6.381000        0.000000
296     0      1      0        78.593536        7.090000        0.000000
297     0      1      0        81.049583        4.254000        0.000000
298     0      1      0        79.821564        4.963000        0.000000
299     0      1      0        79.821564        6.381000        0.000000
300     0      1      0        81.049583        7.090000        0.000000
301     0      1      0        83.505630        4.254000        0.000000
302     0      1      0        82.277611        4.963000        0.000000
303     0      1      0        82.277611        6.381000        0.000000
304     0      1      0        83.505630        7.090000        0.000000
305     0      1      0        85.961685        4.254000        0.000000
306     0      1      0        84.733658        4.963000        0.000000
307     0      1      0        84.733658        6.381000        0.000000
308     0      1      0        85.961685        7.090000        0.000000
309     0      1      0        88.417732        4.254000        0.000000
310     0      1      0        87.189705        4.963000        0.000000
311     0      1      0        87.189705        6.381000        0.000000
312     0      1      0        88.417732        7.090000        0.000000
313     0      1      0        90.873779        4.254000        0.000000
314     0      1      0        89.645752        4.963000        0.000000
315     0      1      0        89.645752        6.381000        0.000000
316     0      1      0        90.873779        7.090000        0.000000
317     0      1      0        93.329826        4.254000        0.000000
318     0      1      0        92.101799        4.963000        0.000000
319     0      1      0        92.101799        6.381000        0.000000
320     0      1      0        93.329826        7.090000        0.000000
321     0      1      0        95.785873        4.254000        0.000000
322     0      1      0        94.557846        4.963000        0.000000
323     0      1      0        94.557846        6.381000        0.000000
324     0      1      0        95.785873        7.090000        0.000000
325     0      1      0        98.241920        4.254000        0.000000
326     0      1      0        97.013901        4.963000        0.000000
327     0      1      0        97.013901        6.381000        0.000000
328     0      1      0        98.241920        7.090000        0.000000
329     0      1      0         0.000000        8.508000        0.000000
330     0      1      0        -1.228024        9.217000        0.000000
331     0      1      0        -1.228024       10.635000        0.000000
332     0      1      0         0.000000       11.344000        0.000000
333     0      1      0         2.456048        8.508000        0.000000
334     0      1      0         1.228024        9.217000        0.000000
335     0      1      0         1.228024       10.635000        0.000000
336     0      1      0         2.456048       11.344000        0.000000
337     0      1      0         4.912096        8.508000        0.000000
338     0      1      0         3.684072        9.217000        0.000000
339     0      1      0         3.684072       10.635000        0.000000
340     0      1      0         4.912096       11.344000        0.000000
341     0      1      0         7.368144        8.508000        0.000000
342     0      1      0         6.140120        9.217000        0.000000
343     0      1      0         6.140120       10.635000        0.000000
344     0      1      0         7.368144       11.344000        0.000000
345     0      1      0         9.824192        8.508000        0.000000
346     0      1      0         8.596169        9.217000        0.000000
347     0      1      0         8.596169       10.635000        0.000000
348     0      1      0         9.824192       11.344000        0.000000
349     0      1      0        12.280240        8.508000        0.000000
350     0      1      0        11.052217        9.217000        0.000000
351     0      1      0        11.052217       10.635000        0.000000
352     0      1      0        12.280240       11.344000        0.000000
353     0      1      0        14.736288        8.508000        0.000000
354     0      1      0        13.508265        9.217000        0.000000
355     0      1      0        13.508265       10.635000        0.000000
356     0      1      0        14.736288       11.344000        0.000000
357     0      1      0        17.192337        8.508000        0.000000
358     0      1      0        15.964313        9.217000        0.000000
359     0      1      0        15.964313       10.635000        0.000000
360     0      1      0        17.192337       11.344000        0.000000
361     0      1      0        19.648384        8.508000        0.000000
362     0      1      0        18.420361        9.217000        0.000000
363     0      1      0        18.420361       10.635000        0.000000
364     0      1      0        19.648384       11.344000        0.000000
365     0      1      0        22.104433        8.508000        0.000000
366     0      1      0        20.876408        9.217000        0.000000
367     0      1      0        20.876408       10.635000        0.000000
368     0      1      0        22.104433       11.344000        0.000000
369     0      1      0        24.560480        8.508000        0.000000
370     0      1      0        23.332457        9.217000        0.000000
371     0      1      0        23.332457       10.635000        0.000000
372     0      1      0        24.560480       11.344000        0.000000
373     0      1      0        27.016529        8.508000        0.000000
374     0      1      0        25.788504        9.217000        0.000000
375     0      1      0        25.788504       10.635000        0.000000
376     0      1      0        27.016529       11.344000        0.000000
377     0      1      0        29.472576        8.508000        0.000000
378     0      1      0        28.244553        9.217000        0.000000
379     0      1      0        28.244553       10.635000        0.000000
380     0      1      0        29.472576       11.344000        0.000000
381     0      1      0        31.928625        8.508000        0.000000
382     0      1      0        30.700600        9.217000        0.000000
383     0      1      0        30.700600       10.635000        0.000000
384     0      1      0        31.928625       11.344000        0.000000
385     0      1      0        34.384674        8.508000        0.000000
386     0      1      0        33.156647        9.217000        0.000000
387     0      1      0        33.156647       10.635000        0.000000
388     0      1      0        34.384674       11.344000        0.000000
389     0      1      0        36.840721        8.508000        0.000000
390     0      1      0        35.612698        9.217000        0.000000
391     0      1      0        35.612698       10.635000        0.000000
392     0      1      0        36.840721       11.344000        0.000000
393     0      1      0        39.296768        8.508000        0.000000
394     0      1      0        38.068745        9.217000        0.000000
395     0      1      0        38.068745       10.635000        0.000000
396     0      1      0        39.296768       11.344000        0.000000
397     0      1      0        41.752815        8.508000        0.000000
398     0      1      0        40.524792        9.217000        0.000000
399     0      1      0        40.524792       10.635000        0.000000
400     0      1      0        41.752815       11.344000        0.000000
401     0      1      0        44.208866        8.508000        0.000000
402     0      1      0        42.980843        9.217000        0.000000
403     0      1      0        42.980843       10.635000        0.000000