
180 atoms
#  atoms
3 atom types

0.000000 20.000000 xlo xhi
0.000000 20.000000 ylo yhi
0.000000 7.000000 zlo zhi


# Masses 

# 1 12.0

Atoms

1     0   1   0   0.000000   0.000000   0.000000
2     0   1   0   -1.228024   0.709000   0.000000
3     0   1   0   -1.228024   2.127000   0.000000
4     0   1   0   0.000000   2.836000   0.000000
5     0   1   0   2.456048   0.000000   0.000000
6     0   1   0   1.228024   0.709000   0.000000
7     0   1   0   1.228024   2.127000   0.000000
8     0   1   0   2.456048   2.836000   0.000000
9     0   1   0   4.912096   0.000000   0.000000
10    0   1   0   3.684072   0.709000   0.000000
11    0   1   0   3.684072   2.127000   0.000000
12    0   1   0   4.912096   2.836000   0.000000
13    0   1   0   7.368144   0.000000   0.000000
14    0   1   0   6.140120   0.709000   0.000000
15    0   1   0   6.140120   2.127000   0.000000
16    0   1   0   7.368144   2.836000   0.000000
17    0   1   0   9.824192   0.000000   0.000000
18    0   1   0   8.596169   0.709000   0.000000
19    0   1   0   8.596169   2.127000   0.000000
20    0   1   0   9.824192   2.836000   0.000000
21    0   1   0   12.280240   0.000000   0.000000
22    0   1   0   11.052217   0.709000   0.000000
23    0   1   0   11.052217   2.127000   0.000000
24    0   1   0   12.280240   2.836000   0.000000
25    0   1   0   14.736288   0.000000   0.000000
26    0   1   0   13.508265   0.709000   0.000000
27    0   1   0   13.508265   2.127000   0.000000
28    0   1   0   14.736288   2.836000   0.000000
29    0   1   0   17.192337   0.000000   0.000000
30    0   1   0   15.964313   0.709000   0.000000
31    0   1   0   15.964313   2.127000   0.000000
32    0   1   0   17.192337   2.836000   0.000000
33    0   1   0   19.648384   0.000000   0.000000
34    0   1   0   18.420361   0.709000   0.000000
35    0   1   0   18.420361   2.127000   0.000000
36    0   1   0   19.648384   2.836000   0.000000
37    0   1   0   0.000000   4.254000   0.000000
38    0   1   0   -1.228024   4.963000   0.000000
39    0   1   0   -1.228024   6.381000   0.000000
40    0   1   0   0.000000   7.090000   0.000000
41    0   1   0   2.456048   4.254000   0.000000
42    0   1   0   1.228024   4.963000   0.000000
43    0   1   0   1.228024   6.381000   0.000000
44    0   1   0   2.456048   7.090000   0.000000
45    0   1   0   4.912096   4.254000   0.000000
46    0   1   0   3.684072   4.963000   0.000000
47    0   1   0   3.684072   6.381000   0.000000
48    0   1   0   4.912096   7.090000   0.000000
49    0   1   0   7.368144   4.254000   0.000000
50    0   1   0   6.140120   4.963000   0.000000
51    0   1   0   6.140120   6.381000   0.000000
52    0   1   0   7.368144   7.090000   0.000000
53    0   1   0   9.824192   4.254000   0.000000
54    0   1   0   8.596169   4.963000   0.000000
55    0   1   0   8.596169   6.381000   0.000000
56    0   1   0   9.824192   7.090000   0.000000
57    0   1   0   12.280240   4.254000   0.000000
58    0   1   0   11.052217   4.963000   0.000000
59    0   1   0   11.052217   6.381000   0.000000
60    0   1   0   12.280240   7.090000   0.000000
61    0   1   0   14.736288   4.254000   0.000000
62    0   1   0   13.508265   4.963000   0.000000
63    0   1   0   13.508265   6.381000   0.000000
64    0   1   0   14.736288   7.090000   0.000000
65    0   1   0   17.192337   4.254000   0.000000
66    0   1   0   15.964313   4.963000   0.000000
67    0   1   0   15.964313   6.381000   0.000000
68    0   1   0   17.192337   7.090000   0.000000
69    0   1   0   19.648384   4.254000   0.000000
70    0   1   0   18.420361   4.963000   0.000000
71    0   1   0   18.420361   6.381000   0.000000
72    0   1   0   19.648384   7.090000   0.000000
73    0   1   0   0.000000   8.508000   0.000000
74    0   1   0   -1.228024   9.217000   0.000000
75    0   1   0   -1.228024   10.635000   0.000000
76    0   1   0   0.000000   11.344000   0.000000
77    0   1   0   2.456048   8.508000   0.000000
78    0   1   0   1.228024   9.217000   0.000000
79    0   1   0   1.228024   10.635000   0.000000
80    0   1   0   2.456048   11.344000   0.000000
81    0   1   0   4.912096   8.508000   0.000000
82    0   1   0   3.684072   9.217000   0.000000
83    0   1   0   3.684072   10.635000   0.000000
84    0   1   0   4.912096   11.344000   0.000000
85    0   1   0   7.368144   8.508000   0.000000
86    0   1   0   6.140120   9.217000   0.000000
87    0   1   0   6.140120   10.635000   0.000000
88    0   1   0   7.368144   11.344000   0.000000
89    0   1   0   9.824192   8.508000   0.000000
90    0   1   0   8.596169   9.217000   0.000000
91    0   1   0   8.596169   10.635000   0.000000
92    0   1   0   9.824192   11.344000   0.000000
93    0   1   0   12.280240   8.508000   0.000000
94    0   1   0   11.052217   9.217000   0.000000
95    0   1   0   11.052217   10.635000   0.000000
96    0   1   0   12.280240   11.344000   0.000000
97    0   1   0   14.736288   8.508000   0.000000
98    0   1   0   13.508265   9.217000   0.000000
99    0   1   0   13.508265   10.635000   0.000000
100   0   1   0   14.736288   11.344000   0.000000
101   0   1   0   17.192337   8.508000   0.000000
102   0   1   0   15.964313   9.217000   0.000000
103   0   1   0   15.964313   10.635000   0.000000
104   0   1   0   17.192337   11.344000   0.000000
105   0   1   0   19.648384   8.508000   0.000000
106   0   1   0   18.420361   9.217000   0.000000
107   0   1   0   18.420361   10.635000   0.000000
108   0   1   0   19.648384   11.344000   0.000000
109   0   1   0   0.000000   12.762000   0.000000
110   0   1   0   -1.228024   13.471000   0.000000
111   0   1   0   -1.228024   14.889000   0.000000
112   0   1   0   0.000000   15.598000   0.000000
113   0   1   0   2.456048   12.762000   0.000000
114   0   1   0   1.228024   13.471000   0.000000
115   0   1   0   1.228024   14.889000   0.000000
116   0   1   0   2.456048   15.598000   0.000000
117   0   1   0   4.912096   12.762000   0.000000
118   0   1   0   3.684072   13.471000   0.000000
119   0   1   0   3.684072   14.889000   0.000000
120   0   1   0   4.912096   15.598000   0.000000
121   0   1   0   7.368144   12.762000   0.000000
122   0   1   0   6.140120   13.471000   0.000000
123   0   1   0   6.140120   14.889000   0.000000
124   0   1   0   7.368144   15.598000   0.000000
125   0   1   0   9.824192   12.762000   0.000000
126   0   1   0   8.596169   13.471000   0.000000
127   0   1   0   8.596169   14.889000   0.000000
128   0   1   0   9.824192   15.598000   0.000000
129   0   1   0   12.280240   12.762000   0.000000
130   0   1   0   11.052217   13.471000   0.000000
131   0   1   0   11.052217   14.889000   0.000000
132   0   1   0   12.280240   15.598000   0.000000
133   0   1   0   14.736288   12.762000   0.000000
134   0   1   0   13.508265   13.471000   0.000000
135   0   1   0   13.508265   14.889000   0.000000
136   0   1   0   14.736288   15.598000   0.000000
137   0   1   0   17.192337   12.762000   0.000000
138   0   1   0   15.964313   13.471000   0.000000
139   0   1   0   15.964313   14.889000   0.000000
140   0   1   0   17.192337   15.598000   0.000000
141   0   1   0   19.648384   12.762000   0.000000
142   0   1   0   18.420361   13.471000   0.000000
143   0   1   0   18.420361   14.889000   0.000000
144   0   1   0   19.648384   15.598000   0.000000
145   0   1   0   0.000000   17.016001   0.000000
146   0   1   0   -1.228024   17.725000   0.000000
147   0   1   0   -1.228024   19.143000   0.000000
148   0   1   0   0.000000   19.851999   0.000000
149   0   1   0   2.456048   17.016001   0.000000
150   0   1   0   1.228024   17.725000   0.000000
151   0   1   0   1.228024   19.143000   0.000000
152   0   1   0   2.456048   19.851999   0.000000
153   0   1   0   4.912096   17.016001   0.000000
154   0   1   0   3.684072   17.725000   0.000000
155   0   1   0   3.684072   19.143000   0.000000
156   0   1   0   4.912096   19.851999   0.000000
157   0   1   0   7.368144   17.016001   0.000000
158   0   1   0   6.140120   17.725000   0.000000
159   0   1   0   6.140120   19.143000   0.000000
160   0   1   0   7.368144   19.851999   0.000000
161   0   1   0   9.824192   17.016001   0.000000
162   0   1   0   8.596169   17.725000   0.000000
163   0   1   0   8.596169   19.143000   0.000000
164   0   1   0   9.824192   19.851999   0.000000
165   0   1   0   12.280240   17.016001   0.000000
166   0   1   0   11.052217   17.725000   0.000000
167   0   1   0   11.052217   19.143000   0.000000
168   0   1   0   12.280240   19.851999   0.000000
169   0   1   0   14.736288   17.016001   0.000000
170   0   1   0   13.508265   17.725000   0.000000
171   0   1   0   13.508265   19.143000   0.000000
172   0   1   0   14.736288   19.851999   0.000000
173   0   1   0   17.192337   17.016001   0.000000
174   0   1   0   15.964313   17.725000   0.000000
175   0   1   0   15.964313   19.143000   0.000000
176   0   1   0   17.192337   19.851999   0.000000
177   0   1   0   19.648384   17.016001   0.000000
178   0   1   0   18.420361   17.725000   0.000000
179   0   1   0   18.420361   19.143000   0.000000
180   0   1   0   19.648384   19.851999   0.000000
