60
Atoms. Timestep: 100
Na 11.3673 109.433 4.85571
Na 24.4468 80.8134 2.23411
Na 139.774 84.8612 4.22491
Na 13.3325 11.1872 2.1812
Na 136.611 50.6393 2.64355
Na 118.48 75.8116 2.21225
Na 145.106 23.9602 2.18479
Na 174.401 93.8737 4.16276
Na 137.542 58.9645 2.54203
Na 165.725 63.6722 4.56363
Na 170.83 63.3275 3.87118
Na 108.213 158.469 2.58483
Na 45.1873 167.568 3.34744
Na 34.9277 91.2008 2.19613
Na 9.38289 171.56 4.26231
Na 97.7445 159.752 5.33134
Na 75.6372 23.3447 3.96768
Na 191.149 148.074 2.15058
Na 51.3575 105.773 3.42661
Na 142.941 143.078 3.5916
Na 140.303 164.793 4.81456
Na 154.936 64.4336 4.07939
Na 64.1341 53.1373 2.16435
Na 96.8877 151.447 2.71514
Na 183.167 99.7004 4.04705
Na 32.9722 126.215 3.17405
Na 27.3849 21.0182 4.70873
Na 82.6185 183.566 2.59676
Na 63.0142 63.6552 4.5453
Na 199.899 68.1287 2.14586
Cl 31.9762 33.8364 3.15526
Cl 119.393 152.978 3.11939
Cl 5.04019 197.698 2.4307
Cl 144.014 105.241 2.64828
Cl 181.905 157.35 4.89455
Cl 63.8578 139.062 2.88315
Cl 90.516 96.7826 4.92769
Cl 129.855 169.403 4.3119
Cl 56.0869 191.997 2.07468
Cl 161.053 82.1182 2.63621
Cl 180.159 72.3688 2.07817
Cl 146.293 131.763 2.30069
Cl 177.457 149.017 3.51771
Cl 182.416 92.6035 3.26732
Cl 163.562 199.198 3.34265
Cl 26.6471 41.6819 3.67312
Cl 198.646 163.756 2.10888
Cl 41.8772 179.8 2.70353
Cl 187.847 164.859 4.88133
Cl 193.76 141.981 4.92234
Cl 6.67994 177.458 2.77433
Cl 181.512 46.6659 2.86928
Cl 88.2876 136.149 4.46646
Cl 127.646 26.0549 5.05556
Cl 157.578 56.3331 2.11653
Cl 176.266 131.038 3.02328
Cl 96.317 17.9825 3.10954
Cl 179.22 92.7108 3.19925
Cl 112.694 147.733 2.54168
Cl 25.383 97.56 3.50044
60
Atoms. Timestep: 200
Na 11.3713 109.429 4.65787
Na 24.4443 80.8159 2.49244
Na 139.775 84.8573 4.82174
Na 13.331 11.1895 2.43101
Na 136.613 50.6418 2.64965
Na 118.478 75.8131 2.33267
Na 145.105 23.9587 2.43295
Na 174.405 93.8778 3.8351
Na 137.542 58.9618 2.56093
Na 165.72 63.6698 4.52698
Na 170.826 63.3293 2.35339
Na 108.213 158.471 2.60083
Na 45.1907 167.568 3.3503
Na 34.9316 91.2053 2.33044
Na 9.38187 171.556 4.25824
Na 97.7425 159.756 4.03938
Na 75.6397 23.3467 3.60044
Na 191.153 148.075 2.34227
Na 51.3606 105.775 3.42212
Na 142.942 143.082 3.146
Na 140.305 164.79 4.56659
Na 154.933 64.4307 3.73372
Na 64.1347 53.1401 2.31767
Na 96.8905 151.448 2.72284
Na 183.167 99.7019 4.0436
Na 32.9726 126.212 3.57143
Na 27.3806 21.0169 4.45036
Na 82.616 183.568 2.88216
Na 63.0144 63.6543 4.51688
Na 199.902 68.1264 2.34508
Cl 31.9738 33.834 3.15715
Cl 119.394 152.981 3.11761
Cl 5.03919 197.696 1.86142
Cl 144.013 105.238 4.10925
Cl 181.901 157.352 4.65584
Cl 63.8568 139.06 3.22844
Cl 90.5138 96.781 4.71727
Cl 129.856 169.403 4.30716
Cl 56.09 191.997 2.29442
Cl 161.053 82.1216 2.64413
Cl 180.16 72.3695 2.27081
Cl 146.296 131.766 2.34783
Cl 177.457 149.014 3.0481
Cl 182.441 92.6048 3.69357
Cl 163.564 199.195 2.83665
Cl 26.6472 41.6801 3.67324
Cl 198.645 163.759 2.25911
Cl 41.8802 179.799 3.01323
Cl 187.849 164.862 4.64078
Cl 193.76 141.983 4.72687
Cl 6.67876 177.459 2.78045
Cl 181.515 46.664 2.86854
Cl 88.2866 136.15 4.18582
Cl 127.643 26.056 3.68098
Cl 157.575 56.3303 2.35858
Cl 176.264 131.036 3.02387
Cl 96.3191 17.9818 3.11101
Cl 179.197 92.7092 1.67218
Cl 112.691 147.731 2.5521
Cl 25.382 97.5598 3.50281
60
Atoms. Timestep: 300
Na 11.373 109.427 4.50935
Na 24.4433 80.817 2.63035
Na 139.775 84.8558 4.89463
Na 13.3302 11.1905 2.57697
Na 136.613 50.6428 2.66354
Na 118.477 75.8139 2.449
Na 145.105 23.9581 2.57773
Na 174.407 93.8795 3.69571
Na 137.542 58.9609 2.58707
Na 165.719 63.6689 4.48235
Na 170.825 63.3301 1.91655
Na 108.213 158.472 2.62225
Na 45.1922 167.569 3.35174
Na 34.9332 91.2073 2.45396
Na 9.38124 171.555 4.24949
Na 97.7416 159.758 3.4662
Na 75.6408 23.3476 3.44513
Na 191.154 148.075 2.48794
Na 51.3619 105.777 3.42035
Na 142.942 143.083 2.9587
Na 140.305 164.788 4.422
Na 154.932 64.4295 3.58722
Na 64.135 53.1413 2.4551
Na 96.8916 151.449 2.73377
Na 183.167 99.7024 4.03983
Na 32.9728 126.21 3.73919
Na 27.3788 21.0165 4.32023
Na 82.6149 183.569 3.00634
Na 63.0145 63.6541 4.47723
Na 199.903 68.1255 2.49313
Cl 31.9728 33.8328 3.15844
Cl 119.394 152.982 3.11748
Cl 5.03879 197.696 2.18146
Cl 144.013 105.237 4.71971
Cl 181.9 157.353 4.51218
Cl 63.8564 139.058 3.37466
Cl 90.5128 96.7802 4.56813
Cl 129.857 169.403 4.29931
Cl 56.0913 191.997 2.44385
Cl 161.052 82.123 2.65506
Cl 180.16 72.3697 2.41601
Cl 146.297 131.768 2.40606
Cl 177.457 149.012 2.85076
Cl 182.459 92.6052 3.87712
Cl 163.565 199.193 2.62621
Cl 26.6473 41.6793 3.67312
Cl 198.644 163.759 2.38903
Cl 41.8814 179.798 3.14525
Cl 187.85 164.863 4.49989
Cl 193.759 141.983 4.58117
Cl 6.67837 177.459 2.78677
Cl 181.516 46.6632 2.87056
Cl 88.2862 136.151 4.06392
Cl 127.642 26.0565 3.09801
Cl 157.574 56.3292 2.50033
Cl 176.263 131.036 3.02514
Cl 96.32 17.9815 3.11228
Cl 179.18 92.7088 2.40885
Cl 112.689 147.731 2.56889
Cl 25.3816 97.5596 3.5038
60
Atoms. Timestep: 400
Na 11.3739 109.427 4.39818
Na 24.4426 80.8177 2.7198
Na 139.776 84.8551 4.69033
Na 13.3298 11.191 2.67551
Na 136.614 50.6433 2.68249
Na 118.477 75.8144 2.54967
Na 145.105 23.9578 2.67554
Na 174.408 93.8802 3.61891
Na 137.542 58.9606 2.61842
Na 165.717 63.6685 4.43323
Na 170.825 63.3306 2.31534
Na 108.214 158.472 2.6481
Na 45.1929 167.569 3.35277
Na 34.934 91.2086 2.55769
Na 9.38068 171.554 4.23745
Na 97.7411 159.759 3.15238
Na 75.6414 23.3481 3.36018
Na 191.155 148.075 2.59804
Na 51.3626 105.777 3.41951
Na 142.942 143.084 2.85864
Na 140.305 164.788 4.32433
Na 154.931 64.4288 3.50682
Na 64.1351 53.1419 2.56644
Na 96.8923 151.449 2.74758
Na 183.167 99.7024 4.03533
Na 32.9729 126.21 3.83059
Na 27.3779 21.0164 4.2383
Na 82.6143 183.57 3.07626
Na 63.0146 63.6542 4.43141
Na 199.903 68.1251 2.60363
Cl 31.9723 33.832 3.15967
Cl 119.394 152.983 3.11808
Cl 5.0386 197.696 2.52248
Cl 144.013 105.236 4.96491
Cl 181.899 157.354 4.41388
Cl 63.8562 139.058 3.45488
Cl 90.5123 96.7797 4.45958
Cl 129.857 169.403 4.28895
Cl 56.0921 191.997 2.55083
Cl 161.052 82.1236 2.66875
Cl 180.16 72.3696 2.52484
Cl 146.298 131.768 2.4679
Cl 177.457 149.011 2.74556
Cl 182.481 92.6052 3.98186
Cl 163.565 199.192 2.52041
Cl 26.6473 41.6789 3.67287
Cl 198.644 163.76 2.49403
Cl 41.8821 179.798 3.21813
Cl 187.85 164.863 4.40442
Cl 193.759 141.984 4.47248
Cl 6.67827 177.459 2.79412
Cl 181.517 46.6627 2.87416
Cl 88.286 136.151 3.99537
Cl 127.641 26.0567 2.7798
Cl 157.573 56.3287 2.59629
Cl 176.262 131.035 3.02694
Cl 96.3205 17.9813 3.11365
Cl 179.158 92.7091 2.97328
Cl 112.688 147.73 2.59029
Cl 25.3815 97.5594 3.50433
60
Atoms. Timestep: 500
Na 11.3744 109.426 4.31277
Na 24.4422 80.8182 2.78392
Na 139.776 84.8548 4.47095
Na 13.3295 11.1914 2.74761
Na 136.614 50.6434 2.70492
Na 118.476 75.8148 2.63397
Na 145.105 23.9577 2.74719
Na 174.41 93.8806 3.57125
Na 137.542 58.9606 2.65285
Na 165.716 63.6683 4.3831
Na 170.825 63.331 2.69652
Na 108.214 158.472 2.67693
Na 45.1933 167.569 3.35366
Na 34.9345 91.2095 2.64296
Na 9.38012 171.554 4.22291
Na 97.7408 159.76 2.95983
Na 75.6417 23.3485 3.30802
Na 191.155 148.075 2.68321
Na 51.3631 105.778 3.41913
Na 142.942 143.085 2.80123
Na 140.305 164.787 4.25277
Na 154.931 64.4283 3.4572
Na 64.1352 53.1422 2.65547
Na 96.8926 151.448 2.76372
Na 183.167 99.7022 4.03009
Na 32.9729 126.21 3.88616
Na 27.3774 21.0165 4.1806
Na 82.6139 183.57 3.12074
Na 63.0146 63.6544 4.38341
Na 199.904 68.1249 2.68846
Cl 31.972 33.8314 3.16098
Cl 119.395 152.983 3.11915
Cl 5.03851 197.696 2.75329
Cl 144.013 105.235 4.86255
Cl 181.898 157.354 4.34142
Cl 63.856 139.057 3.5044
Cl 90.5119 96.7793 4.3774
Cl 129.857 169.403 4.27657
Cl 56.0926 191.997 2.63118
Cl 161.052 82.1239 2.68471
Cl 180.16 72.3695 2.60854
Cl 146.298 131.769 2.52833
Cl 177.456 149.011 2.68572
Cl 182.513 92.6047 4.05096
Cl 163.566 199.192 2.47195
Cl 26.6472 41.6787 3.67252
Cl 198.644 163.76 2.57837
Cl 41.8826 179.797 3.26349
Cl 187.85 164.864 4.3343
Cl 193.759 141.984 4.38907
Cl 6.67833 177.459 2.80257
Cl 181.517 46.6624 2.87893
Cl 88.2859 136.151 3.95179
Cl 127.64 26.0568 2.58827
Cl 157.573 56.3285 2.66671
Cl 176.262 131.035 3.02919
Cl 96.3208 17.9811 3.11521
Cl 179.126 92.71 3.31827
Cl 112.687 147.73 2.61488
Cl 25.3814 97.5592 3.50465
60
Atoms. Timestep: 600
Na 11.3748 109.426 4.24493
Na 24.4419 80.8186 2.83317
Na 139.776 84.8549 4.29705
Na 13.3292 11.1916 2.80357
Na 136.614 50.6434 2.7297
Na 118.476 75.8152 2.70464
Na 145.105 23.9576 2.80287
Na 174.411 93.8807 3.53935
Na 137.542 58.9609 2.68876
Na 165.715 63.6683 4.33408
Na 170.826 63.3313 2.96368
Na 108.215 158.472 2.70756
Na 45.1936 167.57 3.35451
Na 34.9347 91.2103 2.71361
Na 9.37952 171.555 4.20641
Na 97.7405 159.761 2.83429
Na 75.642 23.3489 3.27363
Na 191.156 148.075 2.75121
Na 51.3635 105.779 3.41903
Na 142.943 143.085 2.76895
Na 140.305 164.787 4.19715
Na 154.93 64.428 3.42419
Na 64.1352 53.1424 2.72773
Na 96.8929 151.448 2.7817
Na 183.167 99.7018 4.02413
Na 32.9729 126.209 3.92204
Na 27.377 21.0168 4.13673
Na 82.6136 183.571 3.15146
Na 63.0146 63.6547 4.33569
Na 199.904 68.1249 2.75584
Cl 31.9718 33.8308 3.16242
Cl 119.395 152.984 3.12057
Cl 5.03848 197.696 2.91247
Cl 144.013 105.235 4.63173
Cl 181.898 157.354 4.28492
Cl 63.8559 139.057 3.53739
Cl 90.5117 96.779 4.31265
Cl 129.858 169.403 4.26252
Cl 56.093 191.997 2.69427
Cl 161.052 82.124 2.70245
Cl 180.16 72.3693 2.6751
Cl 146.298 131.769 2.58511
Cl 177.456 149.01 2.65294
Cl 182.555 92.6038 4.09966
Cl 163.566 199.191 2.46197
Cl 26.6471 41.6785 3.6721
Cl 198.644 163.76 2.64723
Cl 41.8829 179.797 3.29401
Cl 187.851 164.864 4.27967
Cl 193.759 141.984 4.32281
Cl 6.67849 177.459 2.81207
Cl 181.517 46.6621 2.88467
Cl 88.2858 136.151 3.9217
Cl 127.64 26.0569 2.47318
Cl 157.572 56.3285 2.72153
Cl 176.262 131.034 3.03184
Cl 96.3209 17.9809 3.11698
Cl 179.083 92.7114 3.54391
Cl 112.686 147.73 2.64157
Cl 25.3814 97.5589 3.50485
60
Atoms. Timestep: 700
Na 11.375 109.426 4.18945
Na 24.4416 80.819 2.87296
Na 139.776 84.8551 4.16407
Na 13.3289 11.1918 2.84893
Na 136.614 50.6433 2.75597
Na 118.476 75.8157 2.76448
Na 145.105 23.9577 2.84806
Na 174.413 93.8807 3.51687
Na 137.542 58.9613 2.72498
Na 165.714 63.6683 4.2873
Na 170.827 63.3317 3.15428
Na 108.216 158.472 2.73903
Na 45.1937 167.57 3.35537
Na 34.9348 91.211 2.77298
Na 9.37886 171.555 4.18841
Na 97.7403 159.762 2.75127
Na 75.6422 23.3491 3.24991
Na 191.156 148.075 2.80704
Na 51.3638 105.779 3.4191
Na 142.943 143.085 2.75345
Na 140.305 164.788 4.152
Na 154.93 64.4278 3.4011
Na 64.1353 53.1426 2.78751
Na 96.893 151.448 2.80107
Na 183.167 99.7013 4.01751
Na 32.9729 126.21 3.94586
Na 27.3768 21.0171 4.10148
Na 82.6134 183.571 3.17399
Na 63.0146 63.6551 4.28964
Na 199.904 68.1249 2.81097
Cl 31.9718 33.8303 3.16399
Cl 119.395 152.984 3.1223
Cl 5.03849 197.695 3.02666
Cl 144.013 105.234 4.42276
Cl 181.898 157.354 4.23898
Cl 63.8558 139.057 3.56054
Cl 90.5115 96.7787 4.25991
Cl 129.858 169.403 4.24714
Cl 56.0932 191.997 2.74558
Cl 161.052 82.1239 2.72155
Cl 180.16 72.3691 2.7296
Cl 146.298 131.769 2.63746
Cl 177.456 149.01 2.63849
Cl 182.603 92.6028 4.1344
Cl 163.566 199.191 2.479
Cl 26.647 41.6784 3.67159
Cl 198.644 163.76 2.70458
Cl 41.8831 179.796 3.31572
Cl 187.851 164.864 4.23522
Cl 193.759 141.984 4.26857
Cl 6.67873 177.458 2.82251
Cl 181.517 46.6619 2.89126
Cl 88.2858 136.151 3.89964
Cl 127.64 26.0569 2.41531
Cl 157.572 56.3285 2.7661
Cl 176.261 131.034 3.03488
Cl 96.321 17.9807 3.11896
Cl 179.035 92.7131 3.69961
Cl 112.686 147.73 2.66947
Cl 25.3815 97.5587 3.50499
60
Atoms. Timestep: 800
Na 11.3751 109.426 4.14289
Na 24.4414 80.8194 2.90636
Na 139.776 84.8554 4.06136
Na 13.3287 11.192 2.88699
Na 136.614 50.6431 2.78305
Na 118.476 75.8161 2.81585
Na 145.105 23.9577 2.88601
Na 174.415 93.8805 3.5004
Na 137.542 58.9619 2.76075
Na 165.713 63.6685 4.24326
Na 170.828 63.332 3.29476
Na 108.217 158.472 2.77066
Na 45.1938 167.571 3.35627
Na 34.9349 91.2117 2.82367
Na 9.37813 171.556 4.1693
Na 97.7401 159.763 2.69859
Na 75.6424 23.3494 3.23307
Na 191.156 148.075 2.85403
Na 51.364 105.78 3.4193
Na 142.943 143.085 2.75004
Na 140.305 164.788 4.11407
Na 154.93 64.4276 3.38436
Na 64.1353 53.1426 2.83796
Na 96.8931 151.447 2.82145
Na 183.166 99.7007 4.01027
Na 32.9729 126.21 3.96167
Na 27.3767 21.0175 4.07194
Na 82.6132 183.572 3.19134
Na 63.0146 63.6556 4.24594
Na 199.904 68.1251 2.85725
Cl 31.9718 33.8297 3.16572
Cl 119.395 152.984 3.1243
Cl 5.03852 197.695 3.11154
Cl 144.013 105.234 4.25538
Cl 181.898 157.354 4.20038
Cl 63.8557 139.056 3.57741
Cl 90.5114 96.7784 4.21572
Cl 129.858 169.403 4.2307
Cl 56.0935 191.997 2.78855
Cl 161.052 82.1237 2.74164
Cl 180.16 72.3687 2.77539
Cl 146.298 131.77 2.68535
Cl 177.456 149.009 2.63734
Cl 182.651 92.6017 4.15865
Cl 163.566 199.191 2.5138
Cl 26.6469 41.6784 3.67102
Cl 198.645 163.76 2.75328
Cl 41.8833 179.796 3.33186
Cl 187.851 164.864 4.1978
Cl 193.759 141.984 4.22299
Cl 6.67904 177.457 2.83379
Cl 181.517 46.6617 2.89859
Cl 88.2857 136.151 3.88266
Cl 127.64 26.0568 2.40466
Cl 157.572 56.3287 2.80361
Cl 176.261 131.034 3.03827
Cl 96.321 17.9806 3.12115
Cl 178.986 92.7149 3.81167
Cl 112.685 147.729 2.69792
Cl 25.3816 97.5583 3.50507
60
Atoms. Timestep: 900
Na 11.3752 109.426 4.10296
Na 24.4412 80.8197 2.93527
Na 139.777 84.8558 3.98051
Na 13.3284 11.1921 2.91981
Na 136.614 50.6428 2.81045
Na 118.475 75.8165 2.86057
Na 145.105 23.9578 2.91877
Na 174.418 93.8801 3.48798
Na 137.542 58.9625 2.79558
Na 165.712 63.6687 4.20206
Na 170.829 63.3324 3.40141
Na 108.218 158.472 2.80197
Na 45.1938 167.571 3.35722
Na 34.9348 91.2124 2.86765
Na 9.37734 171.557 4.14939
Na 97.7399 159.764 2.66949
Na 75.6426 23.3497 3.22093
Na 191.156 148.075 2.89444
Na 51.3642 105.78 3.41961
Na 142.943 143.085 2.75566
Na 140.305 164.788 4.08133
Na 154.93 64.4275 3.37189
Na 64.1354 53.1427 2.88133
Na 96.8931 151.447 2.84253
Na 183.166 99.7 4.00246
Na 32.9729 126.21 3.97183
Na 27.3767 21.0181 4.04634
Na 82.613 183.572 3.20523
Na 63.0146 63.6562 4.20482
Na 199.904 68.1253 2.89698
Cl 31.9718 33.8291 3.16761
Cl 119.395 152.984 3.12654
Cl 5.03858 197.695 3.17657
Cl 144.013 105.234 4.12293
Cl 181.897 157.354 4.16707
Cl 63.8556 139.056 3.59009
Cl 90.5113 96.7781 4.17782
Cl 129.858 169.402 4.21344
Cl 56.0937 191.997 2.82544
Cl 161.052 82.1235 2.76241
Cl 180.16 72.3684 2.81473
Cl 146.298 131.77 2.72911
Cl 177.456 149.009 2.64609
Cl 182.697 92.6007 4.17464
Cl 163.566 199.191 2.55894
Cl 26.6468 41.6784 3.67038
Cl 198.645 163.76 2.79538
Cl 41.8834 179.796 3.34427
Cl 187.851 164.864 4.16544
Cl 193.759 141.985 4.18382
Cl 6.6794 177.457 2.8458
Cl 181.518 46.6616 2.90659
Cl 88.2857 136.151 3.86905
Cl 127.64 26.0568 2.43066
Cl 157.572 56.3289 2.83604
Cl 176.261 131.033 3.04201
Cl 96.321 17.9804 3.12356
Cl 178.938 92.7167 3.89498
Cl 112.685 147.729 2.72647
Cl 25.3817 97.558 3.50513
60
Atoms. Timestep: 1000
Na 11.3753 109.427 4.06804
Na 24.4409 80.8201 2.9609
Na 139.777 84.8563 3.91561
Na 13.3282 11.1922 2.94875
Na 136.614 50.6425 2.83781
Na 118.475 75.817 2.90001
Na 145.105 23.958 2.94768
Na 174.42 93.8798 3.47842
Na 137.542 58.9633 2.82922
Na 165.71 63.6689 4.16361
Na 170.831 63.3327 3.48443
Na 108.219 158.472 2.83266
Na 45.1938 167.572 3.35822
Na 34.9347 91.2132 2.90635
Na 9.37648 171.558 4.12892
Na 97.7397 159.765 2.65954
Na 75.6427 23.35 3.21215
Na 191.156 148.075 2.92984
Na 51.3644 105.781 3.42
Na 142.943 143.086 2.76808
Na 140.305 164.788 4.05243
Na 154.93 64.4274 3.36241
Na 64.1354 53.1427 2.91923
Na 96.8931 151.446 2.86405
Na 183.166 99.6992 3.99413
Na 32.9729 126.21 3.97781
Na 27.3767 21.0186 4.02358
Na 82.6129 183.573 3.21676
Na 63.0145 63.6569 4.16629
Na 199.904 68.1255 2.93172
Cl 31.9719 33.8285 3.16965
Cl 119.395 152.984 3.12902
Cl 5.03866 197.695 3.22768
Cl 144.012 105.233 4.01709
Cl 181.897 157.353 4.13768
Cl 63.8555 139.056 3.59984
Cl 90.5112 96.7778 4.14464
Cl 129.858 169.402 4.19558
Cl 56.0939 191.997 2.85776
Cl 161.051 82.1232 2.78363
Cl 180.16 72.368 2.84917
Cl 146.298 131.77 2.76918
Cl 177.456 149.008 2.66221
Cl 182.74 92.5999 4.18399
Cl 163.566 199.19 2.60897
Cl 26.6466 41.6783 3.66967
Cl 198.645 163.76 2.83238
Cl 41.8835 179.795 3.35412
Cl 187.851 164.865 4.13681
Cl 193.759 141.985 4.14952
Cl 6.67981 177.456 2.85844
Cl 181.518 46.6614 2.91519
Cl 88.2858 136.151 3.85775
Cl 127.64 26.0567 2.48085
Cl 157.572 56.3292 2.86472
Cl 176.261 131.033 3.04607
Cl 96.321 17.9802 3.12617
Cl 178.894 92.7185 3.95832
Cl 112.684 147.729 2.75477
Cl 25.3819 97.5576 3.50516
60
Atoms. Timestep: 1100
Na 11.3753 109.427 4.03703
Na 24.4407 80.8205 2.98407
Na 139.777 84.857 3.86255
Na 13.3279 11.1923 2.97473
Na 136.614 50.6421 2.86488
Na 118.475 75.8175 2.93522
Na 145.105 23.9581 2.97366
Na 174.423 93.8793 3.47094
Na 137.543 58.9642 2.86152
Na 165.709 63.6692 4.12772
Na 170.833 63.3331 3.55043
Na 108.22 158.472 2.86253
Na 45.1938 167.573 3.3593
Na 34.9346 91.2139 2.94085
Na 9.37554 171.559 4.10812
Na 97.7395 159.766 2.66512
Na 75.6428 23.3502 3.20586
Na 191.156 148.075 2.96135
Na 51.3646 105.781 3.42046
Na 142.943 143.086 2.78559
Na 140.305 164.789 4.02647
Na 154.93 64.4272 3.35512
Na 64.1354 53.1427 2.95283
Na 96.8931 151.446 2.88579
Na 183.166 99.6983 3.98533
Na 32.9729 126.211 3.98056
Na 27.3767 21.0193 4.0029
Na 82.6127 183.573 3.2266
Na 63.0145 63.6576 4.13023
Na 199.904 68.1258 2.96261
Cl 31.972 33.8278 3.17185
Cl 119.395 152.985 3.13172
Cl 5.03875 197.695 3.26876
Cl 144.012 105.233 3.93126
Cl 181.897 157.353 4.11128
Cl 63.8555 139.055 3.60746
Cl 90.5111 96.7774 4.11511
Cl 129.859 169.402 4.17727
Cl 56.0941 191.997 2.88657
Cl 161.051 82.1229 2.80507
Cl 180.16 72.3675 2.87982
Cl 146.298 131.77 2.80598
Cl 177.456 149.007 2.68366
Cl 182.78 92.5991 4.1879
Cl 163.566 199.19 2.66031
Cl 26.6465 41.6784 3.6689
Cl 198.646 163.76 2.86534
Cl 41.8837 179.795 3.36214
Cl 187.851 164.865 4.11104
Cl 193.759 141.985 4.11897
Cl 6.68028 177.455 2.87162
Cl 181.518 46.6612 2.92432
Cl 88.2858 136.151 3.84808
Cl 127.64 26.0566 2.54387
Cl 157.572 56.3295 2.89054
Cl 176.261 131.032 3.05045
Cl 96.321 17.98 3.12898
Cl 178.852 92.7202 4.00714
Cl 112.683 147.729 2.78259
Cl 25.3821 97.5571 3.50518
60
Atoms. Timestep: 1200
Na 11.3753 109.427 4.00911
Na 24.4405 80.8209 3.00534
Na 139.777 84.8576 3.81843
Na 13.3276 11.1924 2.9984
Na 136.614 50.6416 2.89147
Na 118.475 75.8181 2.96699
Na 145.104 23.9583 2.99735
Na 174.426 93.8787 3.46502
Na 137.543 58.9651 2.89245
Na 165.707 63.6696 4.09419
Na 170.835 63.3335 3.60379
Na 108.221 158.472 2.89146
Na 45.1937 167.574 3.36044
Na 34.9344 91.2147 2.97195
Na 9.37453 171.56 4.08715
Na 97.7393 159.767 2.68285
Na 75.6429 23.3505 3.20149
Na 191.156 148.075 2.98976
Na 51.3647 105.782 3.421
Na 142.944 143.086 2.80682
Na 140.304 164.789 4.00278
Na 154.93 64.4271 3.34947
Na 64.1354 53.1426 2.983
Na 96.8931 151.445 2.9076
Na 183.166 99.6973 3.97609
Na 32.9728 126.211 3.98073
Na 27.3768 21.02 3.98382
Na 82.6126 183.574 3.23523
Na 63.0145 63.6584 4.09646
Na 199.904 68.1261 2.99044
Cl 31.9721 33.8271 3.17421
Cl 119.395 152.985 3.13463
Cl 5.03886 197.695 3.30239
Cl 144.012 105.232 3.86063
Cl 181.897 157.353 4.08723
Cl 63.8554 139.055 3.61351
Cl 90.5111 96.7771 4.08845
Cl 129.859 169.402 4.15866
Cl 56.0943 191.997 2.91263
Cl 161.051 82.1224 2.82658
Cl 180.16 72.367 2.90746
Cl 146.298 131.77 2.83994
Cl 177.456 149.007 2.70883
Cl 182.817 92.5985 4.18728
Cl 163.566 199.19 2.7108
Cl 26.6463 41.6784 3.66806
Cl 198.646 163.759 2.89508
Cl 41.8838 179.794 3.36882
Cl 187.851 164.865 4.08749
Cl 193.759 141.985 4.0914
Cl 6.68079 177.454 2.88525
Cl 181.518 46.6611 2.93393
Cl 88.2858 136.151 3.8396
Cl 127.64 26.0565 2.61157
Cl 157.571 56.3299 2.91413
Cl 176.261 131.032 3.05513
Cl 96.3209 17.9798 3.132
Cl 178.814 92.7219 4.04493
Cl 112.683 147.729 2.80979
Cl 25.3823 97.5567 3.50518
60
Atoms. Timestep: 1300
Na 11.3753 109.428 3.98365
Na 24.4403 80.8213 3.02513
Na 139.777 84.8584 3.78119
Na 13.3273 11.1926 3.02025
Na 136.614 50.6411 2.91749
Na 118.475 75.8187 2.99593
Na 145.104 23.9585 3.01922
Na 174.429 93.8781 3.46031
Na 137.543 58.9662 2.92202
Na 165.706 63.6699 4.06279
Na 170.837 63.3339 3.64755
Na 108.222 158.472 2.91941
Na 45.1936 167.574 3.36166
Na 34.9342 91.2155 3.00028
Na 9.37344 171.562 4.06614
Na 97.7391 159.768 2.70962
Na 75.6431 23.3508 3.19864
Na 191.156 148.075 3.01568
Na 51.3649 105.782 3.42159
Na 142.944 143.086 2.83067
Na 140.304 164.79 3.98091
Na 154.93 64.427 3.34508
Na 64.1355 53.1426 3.01039
Na 96.893 151.444 2.92934
Na 183.165 99.6962 3.96647
Na 32.9728 126.212 3.9788
Na 27.3769 21.0208 3.96596
Na 82.6124 183.574 3.24297
Na 63.0145 63.6593 4.06479
Na 199.903 68.1264 3.01581
Cl 31.9723 33.8263 3.17673
Cl 119.395 152.985 3.13775
Cl 5.03897 197.695 3.3304
Cl 144.012 105.232 3.80165
Cl 181.897 157.352 4.06503
Cl 63.8553 139.055 3.61835
Cl 90.511 96.7767 4.06407
Cl 129.859 169.401 4.13988
Cl 56.0945 191.996 2.93649
Cl 161.051 82.122 2.84805
Cl 180.16 72.3664 2.93271
Cl 146.298 131.77 2.87142
Cl 177.455 149.006 2.73647
Cl 182.851 92.598 4.18289
Cl 163.566 199.19 2.7593
Cl 26.6461 41.6784 3.66716
Cl 198.647 163.759 2.9222
Cl 41.8839 179.794 3.37449
Cl 187.851 164.865 4.0657
Cl 193.759 141.986 4.0662
Cl 6.68135 177.454 2.89927
Cl 181.518 46.6609 2.94397
Cl 88.2858 136.15 3.83198
Cl 127.64 26.0563 2.67906
Cl 157.571 56.3303 2.93596
Cl 176.261 131.031 3.06009
Cl 96.3209 17.9795 3.13522
Cl 178.778 92.7236 4.07403
Cl 112.682 147.728 2.83627
Cl 25.3825 97.5562 3.50518
60
Atoms. Timestep: 1400
Na 11.3752 109.428 3.96021
Na 24.44 80.8218 3.04373
Na 139.778 84.8592 3.74931
Na 13.327 11.1927 3.04063
Na 136.614 50.6406 2.94286
Na 118.474 75.8193 3.02255
Na 145.104 23.9587 3.03963
Na 174.433 93.8773 3.45656
Na 137.543 58.9673 2.95028
Na 165.704 63.6703 4.03329
Na 170.84 63.3343 3.68386
Na 108.224 158.472 2.94637
Na 45.1935 167.575 3.36295
Na 34.934 91.2164 3.02633
Na 9.37227 171.563 4.0452
Na 97.7389 159.769 2.74268
Na 75.6432 23.3511 3.19702
Na 191.156 148.075 3.03958
Na 51.3651 105.783 3.42224
Na 142.944 143.086 2.85629
Na 140.304 164.79 3.9605
Na 154.93 64.4269 3.3417
Na 64.1355 53.1425 3.03551
Na 96.893 151.443 2.95092
Na 183.165 99.6951 3.95648
Na 32.9727 126.212 3.97512
Na 27.377 21.0216 3.94908
Na 82.6123 183.575 3.25004
Na 63.0144 63.6602 4.03501
Na 199.903 68.1268 3.0392
Cl 31.9724 33.8255 3.17941
Cl 119.395 152.985 3.14108
Cl 5.03911 197.695 3.35408
Cl 144.012 105.231 3.75175
Cl 181.897 157.352 4.04434
Cl 63.8552 139.055 3.62225
Cl 90.5109 96.7763 4.04154
Cl 129.859 169.401 4.121
Cl 56.0947 191.996 2.95858
Cl 161.051 82.1215 2.86937
Cl 180.159 72.3659 2.956
Cl 146.298 131.77 2.90074
Cl 177.455 149.005 2.7656
Cl 182.882 92.5977 4.17535
Cl 163.566 199.189 2.80526
Cl 26.6459 41.6785 3.6662
Cl 198.647 163.759 2.94718
Cl 41.8839 179.793 3.3794
Cl 187.851 164.865 4.04533
Cl 193.759 141.986 4.04294
Cl 6.68196 177.453 2.9136
Cl 181.517 46.6607 2.95441
Cl 88.2859 136.15 3.82499
Cl 127.64 26.0562 2.74377
Cl 157.571 56.3308 2.95636
Cl 176.261 131.031 3.06534
Cl 96.3208 17.9793 3.13863
Cl 178.745 92.7253 4.09604
Cl 112.681 147.728 2.86201
Cl 25.3827 97.5556 3.50516
60
Atoms. Timestep: 1500
Na 11.3752 109.429 3.93841
Na 24.4398 80.8223 3.06137
Na 139.778 84.8601 3.72166
Na 13.3267 11.1928 3.05982
Na 136.614 50.64 2.96756
Na 118.474 75.8199 3.04722
Na 145.104 23.9589 3.05885
Na 174.436 93.8765 3.45357
Na 137.543 58.9685 2.97732
Na 165.702 63.6708 4.00547
Na 170.843 63.3348 3.71427
Na 108.225 158.472 2.97237
Na 45.1934 167.576 3.36431
Na 34.9337 91.2173 3.05048
Na 9.37102 171.565 4.02438
Na 97.7387 159.77 2.77975
Na 75.6433 23.3515 3.19644
Na 191.156 148.074 3.06183
Na 51.3653 105.784 3.42295
Na 142.944 143.086 2.88302
Na 140.303 164.791 3.94128
Na 154.93 64.4268 3.33912
Na 64.1355 53.1424 3.05877
Na 96.8929 151.442 2.97228
Na 183.165 99.6939 3.94618
Na 32.9727 126.213 3.96995
Na 27.3772 21.0225 3.93296
Na 82.6121 183.575 3.25662
Na 63.0144 63.6612 4.00693
Na 199.903 68.1272 3.06095
Cl 31.9726 33.8247 3.18224
Cl 119.395 152.985 3.14461
Cl 5.03925 197.695 3.37438
Cl 144.012 105.231 3.70899
Cl 181.897 157.352 4.02486
Cl 63.8552 139.054 3.62541
Cl 90.5109 96.7759 4.02052
Cl 129.859 169.401 4.10212
Cl 56.0949 191.996 2.97923
Cl 161.051 82.1209 2.89048
Cl 180.159 72.3652 2.97769
Cl 146.298 131.77 2.9282
Cl 177.455 149.005 2.79551
Cl 182.91 92.5974 4.16518
Cl 163.566 199.189 2.84852
Cl 26.6457 41.6785 3.66517
Cl 198.648 163.758 2.97039
Cl 41.884 179.792 3.38373
Cl 187.851 164.865 4.02613
Cl 193.759 141.986 4.02126
Cl 6.68262 177.451 2.92819
Cl 181.517 46.6605 2.96519
Cl 88.2859 136.15 3.81848
Cl 127.64 26.056 2.80459
Cl 157.571 56.3313 2.97561
Cl 176.261 131.03 3.07086
Cl 96.3207 17.979 3.14225
Cl 178.715 92.727 4.1121
Cl 112.68 147.728 2.88699
Cl 25.383 97.5551 3.50514
60
Atoms. Timestep: 1600
Na 11.3751 109.429 3.91798
Na 24.4395 80.8228 3.07823
Na 139.778 84.8611 3.69739
Na 13.3263 11.1929 3.07802
Na 136.614 50.6393 2.99159
Na 118.474 75.8206 3.07027
Na 145.104 23.9592 3.0771
Na 174.44 93.8756 3.45122
Na 137.543 58.9698 3.00322
Na 165.7 63.6713 3.97915
Na 170.846 63.3353 3.73994
Na 108.227 158.472 2.99746
Na 45.1932 167.577 3.36576
Na 34.9334 91.2183 3.07306
Na 9.36967 171.567 4.00374
Na 97.7385 159.772 2.81911
Na 75.6434 23.3518 3.19673
Na 191.156 148.074 3.0827
Na 51.3655 105.784 3.42371
Na 142.944 143.086 2.91036
Na 140.303 164.792 3.92304
Na 154.93 64.4267 3.33721
Na 64.1356 53.1423 3.08047
Na 96.8928 151.441 2.99338
Na 183.164 99.6925 3.93557
Na 32.9726 126.214 3.96351
Na 27.3773 21.0234 3.91745
Na 82.612 183.576 3.26284
Na 63.0144 63.6623 3.98034
Na 199.903 68.1277 3.08136
Cl 31.9728 33.8238 3.18524
Cl 119.395 152.985 3.14834
Cl 5.03941 197.695 3.39201
Cl 144.012 105.23 3.67192
Cl 181.897 157.351 4.00638
Cl 63.8551 139.054 3.62796
Cl 90.5108 96.7754 4.00074
Cl 129.86 169.4 4.08326
Cl 56.0951 191.996 2.99868
Cl 161.051 82.1203 2.91136
Cl 180.159 72.3645 2.99807
Cl 146.298 131.77 2.95404
Cl 177.455 149.004 2.82568
Cl 182.936 92.5973 4.15281
Cl 163.566 199.189 2.88912
Cl 26.6455 41.6786 3.66407
Cl 198.649 163.758 2.99213
Cl 41.8841 179.792 3.38761
Cl 187.851 164.865 4.00786
Cl 193.759 141.987 4.00088
Cl 6.68333 177.45 2.94299
Cl 181.517 46.6604 2.9763
Cl 88.286 136.15 3.81231
Cl 127.641 26.0558 2.86118
Cl 157.571 56.3318 2.99391
Cl 176.261 131.029 3.07664
Cl 96.3206 17.9787 3.14605
Cl 178.686 92.7286 4.12307
Cl 112.679 147.727 2.91124
Cl 25.3832 97.5545 3.50511
60
Atoms. Timestep: 1700
Na 11.3751 109.43 3.89867
Na 24.4392 80.8233 3.09446
Na 139.778 84.8622 3.67585
Na 13.326 11.193 3.09542
Na 136.614 50.6387 3.01498
Na 118.474 75.8214 3.09195
Na 145.104 23.9595 3.09454
Na 174.445 93.8747 3.44941
Na 137.543 58.9713 3.02809
Na 165.698 63.6718 3.95414
Na 170.849 63.3358 3.76171
Na 108.229 158.472 3.0217
Na 45.1931 167.578 3.36729
Na 34.9331 91.2194 3.0943
Na 9.36824 171.569 3.9833
Na 97.7383 159.773 2.85948
Na 75.6435 23.3522 3.19777
Na 191.155 148.074 3.10243
Na 51.3657 105.785 3.42452
Na 142.945 143.086 2.93795
Na 140.303 164.793 3.90559
Na 154.93 64.4266 3.33586
Na 64.1356 53.1422 3.10089
Na 96.8928 151.44 3.0142
Na 183.164 99.6911 3.92469
Na 32.9726 126.214 3.95597
Na 27.3775 21.0245 3.90243
Na 82.6118 183.576 3.26879
Na 63.0143 63.6634 3.95508
Na 199.903 68.1282 3.10064
Cl 31.9731 33.8228 3.18839
Cl 119.395 152.986 3.15227
Cl 5.03958 197.695 3.40749
Cl 144.012 105.229 3.63942
Cl 181.897 157.351 3.98872
Cl 63.855 139.053 3.63002
Cl 90.5108 96.775 3.98199
Cl 129.86 169.4 4.06447
Cl 56.0953 191.995 3.01716
Cl 161.05 82.1197 2.93199
Cl 180.159 72.3638 3.01736
Cl 146.298 131.77 2.9785
Cl 177.455 149.003 2.85576
Cl 182.96 92.5972 4.13863
Cl 163.566 199.189 2.92721
Cl 26.6452 41.6786 3.6629
Cl 198.649 163.758 3.01264
Cl 41.8842 179.791 3.39113
Cl 187.851 164.865 3.99037
Cl 193.759 141.987 3.98157
Cl 6.68409 177.449 2.95799
Cl 181.517 46.6602 2.98771
Cl 88.286 136.15 3.8064
Cl 127.641 26.0557 2.91365
Cl 157.571 56.3324 3.01144
Cl 176.261 131.029 3.08269
Cl 96.3205 17.9784 3.15006
Cl 178.659 92.7303 4.12961
Cl 112.678 147.727 2.93479
Cl 25.3835 97.5538 3.50508
60
Atoms. Timestep: 1800
Na 11.375 109.431 3.88029
Na 24.439 80.8239 3.11018
Na 139.779 84.8633 3.65652
Na 13.3256 11.1931 3.11215
Na 136.614 50.6379 3.03776
Na 118.474 75.8222 3.11249
Na 145.104 23.9598 3.11132
Na 174.45 93.8736 3.44804
Na 137.543 58.9728 3.05202
Na 165.695 63.6723 3.93027
Na 170.852 63.3364 3.78023
Na 108.231 158.472 3.04515
Na 45.1929 167.579 3.3689
Na 34.9327 91.2205 3.11444
Na 9.36671 171.571 3.96308
Na 97.738 159.775 2.9
Na 75.6437 23.3526 3.19949
Na 191.155 148.074 3.12122
Na 51.3659 105.786 3.42539
Na 142.945 143.086 2.96553
Na 140.302 164.793 3.88881
Na 154.93 64.4265 3.33499
Na 64.1356 53.142 3.12023
Na 96.8927 151.439 3.03473
Na 183.164 99.6897 3.91354
Na 32.9725 126.215 3.94745
Na 27.3777 21.0256 3.88781
Na 82.6116 183.577 3.27454
Na 63.0143 63.6647 3.93098
Na 199.902 68.1287 3.119
Cl 31.9733 33.8218 3.19172
Cl 119.395 152.986 3.1564
Cl 5.03976 197.695 3.42125
Cl 144.012 105.229 3.61062
Cl 181.896 157.35 3.97173
Cl 63.8549 139.053 3.63166
Cl 90.5107 96.7745 3.96408
Cl 129.86 169.399 4.04577
Cl 56.0955 191.995 3.03484
Cl 161.05 82.119 2.95235
Cl 180.159 72.363 3.03576
Cl 146.297 131.77 3.00175
Cl 177.454 149.002 2.88552
Cl 182.983 92.5973 4.12294
Cl 163.566 199.188 2.96302
Cl 26.645 41.6787 3.66166
Cl 198.65 163.757 3.03214
Cl 41.8843 179.79 3.39438
Cl 187.852 164.865 3.97352
Cl 193.759 141.987 3.96315
Cl 6.6849 177.448 2.97314
Cl 181.517 46.6599 2.9994
Cl 88.2861 136.15 3.80067
Cl 127.641 26.0555 2.96228
Cl 157.571 56.333 3.02834
Cl 176.261 131.028 3.089
Cl 96.3204 17.9781 3.15426
Cl 178.634 92.732 4.13223
Cl 112.677 147.727 2.95769
Cl 25.3839 97.5531 3.50504
60
Atoms. Timestep: 1900
Na 11.3749 109.431 3.86269
Na 24.4386 80.8245 3.12549
Na 139.779 84.8645 3.63899
Na 13.3252 11.1932 3.12835
Na 136.613 50.6371 3.05998
Na 118.473 75.823 3.13206
Na 145.104 23.9601 3.12756
Na 174.455 93.8725 3.44708
Na 137.543 58.9744 3.07513
Na 165.693 63.6729 3.9074
Na 170.856 63.337 3.79598
Na 108.233 158.472 3.06791
Na 45.1927 167.581 3.3706
Na 34.9324 91.2217 3.13365
Na 9.36509 171.573 3.94306
Na 97.7377 159.776 2.94012
Na 75.6438 23.353 3.20181
Na 191.155 148.073 3.13922
Na 51.3661 105.787 3.42632
Na 142.945 143.086 2.99295
Na 140.302 164.794 3.87257
Na 154.93 64.4264 3.33454
Na 64.1356 53.1419 3.13869
Na 96.8925 151.438 3.055
Na 183.163 99.6881 3.90214
Na 32.9725 126.216 3.93807
Na 27.3779 21.0267 3.87349